<preamble>

<basis_specs>
===============================================================================
Si                   Z=  14    Mass=  28.090        Charge= 0.17977+309
Lmxo=2 Lmxkb= 2    BasisType=split      Semic=F
L=0  Nsemic=0  Cnfigmx=3
          i=1  nzeta=2  polorb=0  (3s)
            splnorm:   0.15000    
               vcte:    40.000    
               rinn:    4.8580    
               qcoe:    0.0000    
               qyuk:    0.0000    
               qwid:   0.10000E-01
                rcs:    5.3923      3.8468    
            lambdas:    1.0000      1.0000    
L=1  Nsemic=0  Cnfigmx=3
          i=1  nzeta=2  polorb=1  (3p)  (to be polarized perturbatively)
            splnorm:   0.15000    
               vcte:    40.000    
               rinn:    6.1658    
               qcoe:    0.0000    
               qyuk:    0.0000    
               qwid:   0.10000E-01
                rcs:    6.8440      4.9521    
            lambdas:    1.0000      1.0000    
L=2  Nsemic=0  Cnfigmx=3
          i=1  nzeta=0  polorb=0  (3d)  (perturbative polarization orbital) (from 3p)
-------------------------------------------------------------------------------
L=0  Nkbl=1  erefs: 0.17977+309
L=1  Nkbl=1  erefs: 0.17977+309
L=2  Nkbl=1  erefs: 0.17977+309
===============================================================================
</basis_specs>

<pseudopotential_header>
 Si pb nrl pcec
 ONCVPSP-3.2017-10-31Hamann's oncvpsp                        
 3s 2.00  r= 1.60/3p 2.00  r= 1.72/3d 0.00  r= 1.92/                    3s:3p:
</pseudopotential_header>
</preamble>
Si                            # Symbol
Si                            # Label
   14                         # Atomic number
     4.00000000000                             # Valence charge
     28.0900000000        # Mass 
     14.2535667225        # Self energy 
   2   5                      # Lmax for basis, no. of nl orbitals 
   2   6                      # Lmax for projectors, no. of nl KB projectors
# PAOs:__________________________
  0  3  1  0  2.000000   #orbital l, n, z, is_polarized, population
 500    0.1080626682903208E-01     5.392327147687009     # npts, delta, cutoff
     0.000000000000000        0.1223648766422222    
    0.1080626682903208E-01    0.1224242820982715    
    0.2161253365806417E-01    0.1226049377545272    
    0.3241880048709625E-01    0.1229060159209701    
    0.4322506731612833E-01    0.1233274917269799    
    0.5403133414516041E-01    0.1238693265411050    
    0.6483760097419250E-01    0.1245314638876653    
    0.7564386780322457E-01    0.1253138244553541    
    0.8645013463225666E-01    0.1262163001870334    
    0.9725640146128875E-01    0.1272387475395100    
    0.1080626682903208        0.1283809800245572    
    0.1188689351193529        0.1296427601561884    
    0.1296752019483850        0.1310237909397329    
    0.1404814687774171        0.1325237070462986    
    0.1512877356064491        0.1341420658218335    
    0.1620940024354812        0.1358783382831288    
    0.1729002692645133        0.1377319002537601    
    0.1837065360935454        0.1397020237911018    
    0.1945128029225775        0.1417878690512291    
    0.2053190697516096        0.1439884767318278    
    0.2161253365806416        0.1463027612242456    
    0.2269316034096737        0.1487295045947504    
    0.2377378702387058        0.1512673515020443    
    0.2485441370677379        0.1539148051433739    
    0.2593504038967700        0.1566702243054103    
    0.2701566707258021        0.1595318215787294    
    0.2809629375548341        0.1624976627764765    
    0.2917692043838662        0.1655656675789804    
    0.3025754712128983        0.1687336114069854    
    0.3133817380419304        0.1719991285071137    
    0.3241880048709625        0.1753597162144916    
    0.3349942716999946        0.1788127403394388    
    0.3458005385290266        0.1823554416080923    
    0.3566068053580587        0.1859849430710079    
    0.3674130721870908        0.1896982583794946    
    0.3782193390161229        0.1934923008168696    
    0.3890256058451550        0.1973638929611874    
    0.3998318726741871        0.2013097768474732    
    0.4106381395032191        0.2053266244911828    
    0.4214444063322512        0.2094110486306804    
    0.4322506731612833        0.2135596135448990    
    0.4430569399903154        0.2177688458031921    
    0.4538632068193475        0.2220352448075582    
    0.4646694736483796        0.2263552929928891    
    0.4754757404774116        0.2307254655585813    
    0.4862820073064437        0.2351422396145661    
    0.4970882741354758        0.2396021026364297    
    0.5078945409645079        0.2441015601375411    
    0.5187008077935400        0.2486371424808439    
    0.5295070746225721        0.2532054107687959    
    0.5403133414516041        0.2578029617667575    
    0.5511196082806362        0.2624264318324682    
    0.5619258751096683        0.2670724998419717    
    0.5727321419387004        0.2717378891199709    
    0.5835384087677324        0.2764193684000582    
    0.5943446755967645        0.2811137518569397    
    0.6051509424257966        0.2858178982687670    
    0.6159572092548287        0.2905287093823591    
    0.6267634760838608        0.2952431275674938    
    0.6375697429128929        0.2999581328581066    
    0.6483760097419250        0.3046707394882083    
    0.6591822765709571        0.3093779920382133    
    0.6699885433999891        0.3140769613131823    
    0.6807948102290212        0.3187647400781731    
    0.6916010770580533        0.3234384387771891    
    0.7024073438870854        0.3280951813613981    
    0.7132136107161174        0.3327321013491403    
    0.7240198775451495        0.3373463382349637    
    0.7348261443741816        0.3419350343576085    
    0.7456324112032137        0.3464953323274588    
    0.7564386780322457        0.3510243731030709    
    0.7672449448612779        0.3555192947936572    
    0.7780512116903100        0.3599772322504329    
    0.7888574785193421        0.3643953174948064    
    0.7996637453483741        0.3687706810153169    
    0.8104700121774062        0.3731004539489662    
    0.8212762790064383        0.3773817711457754    
    0.8320825458354704        0.3816117750988006    
    0.8428888126645024        0.3857876207054257    
    0.8536950794935345        0.3899064808101438    
    0.8645013463225666        0.3939655524639495    
    0.8753076131515987        0.3979620638219494    
    0.8861138799806307        0.4018932815882688    
    0.8969201468096628        0.4057565189066295    
    0.9077264136386950        0.4095491435858517    
    0.9185326804677271        0.4132685865425159    
    0.9293389472967591        0.4169123503378407    
    0.9401452141257912        0.4204780176829362    
    0.9509514809548233        0.4239632597857680    
    0.9617577477838554        0.4273658444145410    
    0.9725640146128874        0.4306836435557695    
    0.9833702814419195        0.4339146405509103    
    0.9941765482709516        0.4370569366030569    
     1.004982815099984        0.4401087565546511    
     1.015789081929016        0.4430684538483380    
     1.026595348758048        0.4459345145958243    
     1.037401615587080        0.4487055606933636    
     1.048207882416112        0.4513803519377507    
     1.059014149245144        0.4539577871122910    
     1.069820416074176        0.4564369040285574    
     1.080626682903208        0.4588168785263808    
     1.091432949732240        0.4610970224509433    
     1.102239216561272        0.4632767806420623    
     1.113045483390305        0.4653557269863891    
     1.123851750219337        0.4673335595979869    
     1.134658017048369        0.4692100952064213    
     1.145464283877401        0.4709852628438373    
     1.156270550706433        0.4726590969333219    
     1.167076817535465        0.4742317298898773    
     1.177883084364497        0.4757033843527632    
     1.188689351193529        0.4770743651730804    
     1.199495618022561        0.4783450512837247    
     1.210301884851593        0.4795158875800550    
     1.221108151680625        0.4805873769385409    
     1.231914418509657        0.4815600724976247    
     1.242720685338689        0.4824345703199046    
     1.253526952167722        0.4832115025476635    
     1.264333218996754        0.4838915311549759    
     1.275139485825786        0.4844753423889981    
     1.285945752654818        0.4849636419810516    
     1.296752019483850        0.4853571511948617    
     1.307558286312882        0.4856566037649397    
     1.318364553141914        0.4858627437628913    
     1.329170819970946        0.4859763244137280    
     1.339977086799978        0.4859981078684142    
     1.350783353629010        0.4859288659225914    
     1.361589620458042        0.4857693816557069    
     1.372395887287075        0.4855204519497618    
     1.383202154116107        0.4851828908318632    
     1.394008420945139        0.4847575335714074    
     1.404814687774171        0.4842452414506981    
     1.415620954603203        0.4836469071161867    
     1.426427221432235        0.4829634604085451    
     1.437233488261267        0.4821958745621980    
     1.448039755090299        0.4813451726586139    
     1.458846021919331        0.4804124342142148    
     1.469652288748363        0.4793988017815403    
     1.480458555577395        0.4783054874423062    
     1.491264822406427        0.4771337790731502    
     1.502071089235459        0.4758850462685159    
     1.512877356064491        0.4745607458112942    
     1.523683622893524        0.4731624265887572    
     1.534489889722556        0.4716917338608128    
     1.545296156551588        0.4701504127969411    
     1.556102423380620        0.4685403104528088    
     1.566908690209652        0.4668634503916396    
     1.577714957038684        0.4651218195686252    
     1.588521223867716        0.4633175785584516    
     1.599327490696748        0.4614530034411827    
     1.610133757525780        0.4595304638240649    
     1.620940024354812        0.4575523682549676    
     1.631746291183845        0.4555211046353068    
     1.642552558012877        0.4534389954281077    
     1.653358824841909        0.4513082920483298    
     1.664165091670941        0.4491311860572789    
     1.674971358499973        0.4469098102143754    
     1.685777625329005        0.4446462380260326    
     1.696583892158037        0.4423424850814055    
     1.707390158987069        0.4400005103730917    
     1.718196425816101        0.4376222177015907    
     1.729002692645133        0.4352094568271775    
     1.739808959474165        0.4327640247147898    
     1.750615226303197        0.4302876668589195    
     1.761421493132229        0.4277820782321864    
     1.772227759961261        0.4252489046443843    
     1.783034026790294        0.4226897439191796    
     1.793840293619326        0.4201061469346307    
     1.804646560448358        0.4174996189414719    
     1.815452827277390        0.4148716205632391    
     1.826259094106422        0.4122235688159220    
     1.837065360935454        0.4095568382498707    
     1.847871627764486        0.4068727619954223    
     1.858677894593518        0.4041726327554854    
     1.869484161422550        0.4014577038057264    
     1.880290428251582        0.3987291899737129    
     1.891096695080615        0.3959882685907650    
     1.901902961909647        0.3932360804229899    
     1.912709228738679        0.3904737305821721    
     1.923515495567711        0.3877022894159871    
     1.934321762396743        0.3849227933780940    
     1.945128029225775        0.3821362458785805    
     1.955934296054807        0.3793436181151947    
     1.966740562883839        0.3765458498858248    
     1.977546829712871        0.3737438503826488    
     1.988353096541903        0.3709384989684025    
     1.999159363370935        0.3681306459351453    
     2.009965630199968        0.3653211132459843    
     2.020771897028999        0.3625106952601420    
     2.031578163858032        0.3597001594417575    
     2.042384430687064        0.3568902470527879    
     2.053190697516096        0.3540816738303648    
     2.063996964345128        0.3512751306489930    
     2.074803231174160        0.3484712841678942    
     2.085609498003192        0.3456707774638369    
     2.096415764832224        0.3428742306497732    
     2.107222031661256        0.3400822414795477    
     2.118028298490288        0.3372953859390576    
     2.128834565319320        0.3345142188240257    
     2.139640832148352        0.3317392743047900    
     2.150447098977384        0.3289710664782650    
     2.161253365806417        0.3262100899073979    
     2.172059632635448        0.3234568201483880    
     2.182865899464481        0.3207117142657998    
     2.193672166293513        0.3179752113359965    
     2.204478433122545        0.3152477329388983    
     2.215284699951577        0.3125296836385006    
     2.226090966780609        0.3098214514522475    
     2.236897233609641        0.3071234083094760    
     2.247703500438673        0.3044359104992733    
     2.258509767267705        0.3017592991077187    
     2.269316034096737        0.2990939004449930    
     2.280122300925770        0.2964400264623383    
     2.290928567754801        0.2937979751591302    
     2.301734834583834        0.2911680309803609    
     2.312541101412866        0.2885504652044792    
     2.323347368241898        0.2859455363220741    
     2.334153635070930        0.2833534904053598    
     2.344959901899962        0.2807745614686873    
     2.355766168728994        0.2782089718204149    
     2.366572435558026        0.2756569324060392    
     2.377378702387058        0.2731186431430290    
     2.388184969216090        0.2705942932474012    
     2.398991236045122        0.2680840615521252    
     2.409797502874155        0.2655881168177764    
     2.420603769703186        0.2631066180353145    
     2.431410036532219        0.2606397147213174    
     2.442216303361251        0.2581875472058528    
     2.453022570190283        0.2557502469129591    
     2.463828837019315        0.2533279366341267    
     2.474635103848347        0.2509207307947818    
     2.485441370677379        0.2485287357138984    
     2.496247637506411        0.2461520498570489    
     2.507053904335443        0.2437907640828625    
     2.517860171164475        0.2414449618831064    
     2.528666437993508        0.2391147196165878    
     2.539472704822539        0.2368001067368958    
     2.550278971651572        0.2345011860142079    
     2.561085238480604        0.2322180137512859    
     2.571891505309636        0.2299506399937320    
     2.582697772138668        0.2276991087347169    
     2.593504038967700        0.2254634581142533    
     2.604310305796732        0.2232437206131481    
     2.615116572625764        0.2210399232417744    
     2.625922839454796        0.2188520877237626    
     2.636729106283828        0.2166802306747587    
     2.647535373112860        0.2145243637763111    
     2.658341639941892        0.2123844939450564    
     2.669147906770924        0.2102606234973097    
     2.679954173599957        0.2081527503091114    
     2.690760440428988        0.2060608679719179    
     2.701566707258021        0.2039849659440220    
     2.712372974087053        0.2019250296977207    
     2.723179240916085        0.1998810408624587    
     2.733985507745117        0.1978529773640081    
     2.744791774574149        0.1958408135596764    
     2.755598041403181        0.1938445203697974    
     2.766404308232213        0.1918640654055470    
     2.777210575061245        0.1898994130930627    
     2.788016841890277        0.1879505247941250    
     2.798823108719310        0.1860173589234521    
     2.809629375548341        0.1840998710625244    
     2.820435642377374        0.1821980140702388    
     2.831241909206406        0.1803117381904547    
     2.842048176035438        0.1784409911562910    
     2.852854442864470        0.1765857182914980    
     2.863660709693502        0.1747458626089806    
     2.874466976522534        0.1729213649062835    
     2.885273243351566        0.1711121638583747    
     2.896079510180598        0.1693181961078141    
     2.906885777009630        0.1675393963521073    
     2.917692043838662        0.1657756974285531    
     2.928498310667695        0.1640270303966588    
     2.939304577496726        0.1622933246180189    
     2.950110844325759        0.1605745078338202    
     2.960917111154791        0.1588705062401011    
     2.971723377983823        0.1571812445607349    
     2.982529644812855        0.1555066461181550    
     2.993335911641887        0.1538466329020066    
     3.004142178470919        0.1522011256357698    
     3.014948445299951        0.1505700438412341    
     3.025754712128983        0.1489533059010814    
     3.036560978958015        0.1473508291196006    
     3.047367245787048        0.1457625297814443    
     3.058173512616079        0.1441883232086138    
     3.068979779445112        0.1426281238157079    
     3.079786046274144        0.1410818451634366    
     3.090592313103176        0.1395494000104429    
     3.101398579932208        0.1380307003635298    
     3.112204846761240        0.1365256575263277    
     3.123011113590272        0.1350341821463802    
     3.133817380419304        0.1335561842607651    
     3.144623647248336        0.1320915733402730    
     3.155429914077368        0.1306402583321585    
     3.166236180906400        0.1292021477015244    
     3.177042447735432        0.1277771494713747    
     3.187848714564464        0.1263651712613696    
     3.198654981393497        0.1249661203253224    
     3.209461248222528        0.1235799035874749    
     3.220267515051561        0.1222064276775623    
     3.231073781880593        0.1208455989647460    
     3.241880048709625        0.1194973235904141    
     3.252686315538657        0.1181615074998863    
     3.263492582367689        0.1168380564730319    
     3.274298849196721        0.1155268761539062    
     3.285105116025753        0.1142278720793544    
     3.295911382854785        0.1129409497066236    
     3.306717649683817        0.1116660144400473    
     3.317523916512849        0.1104029716568234    
     3.328330183341881        0.1091517267318849    
     3.339136450170914        0.1079121850618586    
     3.349942716999946        0.1066842520882539    
     3.360748983828978        0.1054678333197932    
     3.371555250658010        0.1042628343539461    
     3.382361517487042        0.1030691608976598    
     3.393167784316074        0.1018867187874060    
     3.403974051145106        0.1007154140084545    
     3.414780317974138        0.9955515271342177E-01
     3.425586584803170        0.9840584124014784E-01
     3.436392851632202        0.9726738612892390E-01
     3.447199118461235        0.9613969413905127E-01
     3.458005385290266        0.9502267226473675E-01
     3.468811652119299        0.9391622775042248E-01
     3.479617918948331        0.9282026810550498E-01
     3.490424185777363        0.9173470111847493E-01
     3.501230452606395        0.9065943487045679E-01
     3.512036719435427        0.8959437774826474E-01
     3.522842986264459        0.8853943845689288E-01
     3.533649253093491        0.8749452603149911E-01
     3.544455519922523        0.8645954984886010E-01
     3.555261786751555        0.8543441963838883E-01
     3.566068053580587        0.8441904549265010E-01
     3.576874320409619        0.8341333787742457E-01
     3.587680587238651        0.8241720764130912E-01
     3.598486854067684        0.8143056602492085E-01
     3.609293120896716        0.8045332466965607E-01
     3.620099387725748        0.7948539562604950E-01
     3.630905654554780        0.7852669136172556E-01
     3.641711921383812        0.7757712476898727E-01
     3.652518188212844        0.7663660917201646E-01
     3.663324455041876        0.7570505833371639E-01
     3.674130721870908        0.7478238646219719E-01
     3.684936988699940        0.7386850821692960E-01
     3.695743255528972        0.7296333871456145E-01
     3.706549522358004        0.7206679353441293E-01
     3.717355789187037        0.7117878872365849E-01
     3.728162056016068        0.7029924080220909E-01
     3.738968322845101        0.6942806676729765E-01
     3.749774589674133        0.6856518409777987E-01
     3.760580856503165        0.6771051075815832E-01
     3.771387123332197        0.6686396520233652E-01
     3.782193390161229        0.6602546637711382E-01
     3.792999656990261        0.6519493372542701E-01
     3.803805923819293        0.6437228718934501E-01
     3.814612190648325        0.6355744721282720E-01
     3.825418457477357        0.6275033474425018E-01
     3.836224724306389        0.6195087123871073E-01
     3.847030991135421        0.6115897866011056E-01
     3.857837257964453        0.6037457948303213E-01
     3.868643524793486        0.5959759669440924E-01
     3.879449791622518        0.5882795379500063E-01
     3.890256058451550        0.5806557480067062E-01
     3.901062325280582        0.5731038424348306E-01
     3.911868592109614        0.5656230717261852E-01
     3.922674858938646        0.5582126915511411E-01
     3.933481125767678        0.5508719627643603E-01
     3.944287392596710        0.5436001514088366E-01
     3.955093659425742        0.5363965287184205E-01
     3.965899926254774        0.5292603711187692E-01
     3.976706193083806        0.5221909602268322E-01
     3.987512459912839        0.5151875828488371E-01
     3.998318726741870        0.5082495309769600E-01
     4.009124993570903        0.5013761017846238E-01
     4.019931260399935        0.4945665976204821E-01
     4.030737527228966        0.4878203260011494E-01
     4.041543794057999        0.4811365996027000E-01
     4.052350060887031        0.4745147362510233E-01
     4.063156327716063        0.4679540589110198E-01
     4.073962594545095        0.4614538956747103E-01
     4.084768861374127        0.4550135797482535E-01
     4.095575128203159        0.4486324494379805E-01
     4.106381395032192        0.4423098481354238E-01
     4.117187661861223        0.4360451243013781E-01
     4.127993928690255        0.4298376314490726E-01
     4.138800195519288        0.4236867281264398E-01
     4.149606462348320        0.4175917778975195E-01
     4.160412729177352        0.4115521493230554E-01
     4.171218996006384        0.4055672159402716E-01
     4.182025262835416        0.3996363562419709E-01
     4.192831529664448        0.3937589536547986E-01
     4.203637796493481        0.3879343965168310E-01
     4.214444063322512        0.3821620780544984E-01
     4.225250330151544        0.3764413963588402E-01
     4.236056596980577        0.3707717543612442E-01
     4.246862863809609        0.3651525598083812E-01
     4.257669130638640        0.3595832252367057E-01
     4.268475397467673        0.3540631679463419E-01
     4.279281664296705        0.3485918099745393E-01
     4.290087931125737        0.3431685780685632E-01
     4.300894197954769        0.3377929036580258E-01
     4.311700464783801        0.3324642228268530E-01
     4.322506731612833        0.3271819762847346E-01
     4.333312998441865        0.3219456093383506E-01
     4.344119265270897        0.3167545718619438E-01
     4.354925532099929        0.3116083182676097E-01
     4.365731798928961        0.3065063074752555E-01
     4.376538065757994        0.3014480028821342E-01
     4.387344332587025        0.2964328723322732E-01
     4.398150599416057        0.2914603880852916E-01
     4.408956866245090        0.2865300267850977E-01
     4.419763133074122        0.2816412694282810E-01
     4.430569399903154        0.2767936013322605E-01
     4.441375666732186        0.2719865121033498E-01
     4.452181933561218        0.2672194956041286E-01
     4.462988200390250        0.2624920499208521E-01
     4.473794467219283        0.2578036773303780E-01
     4.484600734048314        0.2531538842665922E-01
     4.495407000877346        0.2485421812908658E-01
     4.506213267706379        0.2439680830550591E-01
     4.517019534535411        0.2394311082697131E-01
     4.527825801364442        0.2349307796720983E-01
     4.538632068193475        0.2304666239942768E-01
     4.549438335022507        0.2260381719129587E-01
     4.560244601851539        0.2216449580346965E-01
     4.571050868680571        0.2172865208548622E-01
     4.581857135509603        0.2129624027218960E-01
     4.592663402338635        0.2086721497990165E-01
     4.603469669167668        0.2044153120558789E-01
     4.614275935996699        0.2001914432042671E-01
     4.625082202825731        0.1960001006741486E-01
     4.635888469654764        0.1918408455788823E-01
     4.646694736483796        0.1877132426792308E-01
     4.657501003312827        0.1836168603554192E-01
     4.668307270141860        0.1795512705665952E-01
     4.679113536970892        0.1755160488194581E-01
     4.689919803799924        0.1715107741356359E-01
     4.700726070628956        0.1675350290524199E-01
     4.711532337457988        0.1635883994570718E-01
     4.722338604287020        0.1596704746943202E-01
     4.733144871116052        0.1557808474892594E-01
     4.743951137945085        0.1519191139093948E-01
     4.754757404774116        0.1480848733289251E-01
     4.765563671603148        0.1442777283922665E-01
     4.776369938432181        0.1404972849802885E-01
     4.787176205261213        0.1367431521770063E-01
     4.797982472090244        0.1330149422358225E-01
     4.808788738919277        0.1293122705459581E-01
     4.819595005748309        0.1256347555993244E-01
     4.830401272577341        0.1219820189569544E-01
     4.841207539406373        0.1183536852149932E-01
     4.852013806235405        0.1147493819711144E-01
     4.862820073064437        0.1111687397910303E-01
     4.873626339893470        0.1076113921750503E-01
     4.884432606722501        0.1040769755247365E-01
     4.895238873551533        0.1005651291303872E-01
     4.906045140380566        0.9707549630530695E-02
     4.916851407209598        0.9360773854999090E-02
     4.927657674038629        0.9016159784107644E-02
     4.938463940867662        0.8673703255355067E-02
     4.949270207696694        0.8333440018024723E-02
     4.960076474525726        0.7995462961519310E-02
     4.970882741354758        0.7659933860690815E-02
     4.981689008183790        0.7327088016423900E-02
     4.992495275012822        0.6997232315063329E-02
     5.003301541841854        0.6670738242536549E-02
     5.014107808670887        0.6348031589760327E-02
     5.024914075499918        0.6029580377810066E-02
     5.035720342328950        0.5715882184963038E-02
     5.046526609157983        0.5407451711936689E-02
     5.057332875987015        0.5104809131716975E-02
     5.068139142816046        0.4808469548617749E-02
     5.078945409645079        0.4518933731340130E-02
     5.089751676474111        0.4236680174777688E-02
     5.100557943303143        0.3962158472771613E-02
     5.111364210132175        0.3695783938538744E-02
     5.122170476961207        0.3437933382922056E-02
     5.132976743790239        0.3188941946935041E-02
     5.143783010619272        0.2949100879932151E-02
     5.154589277448303        0.2718656155122730E-02
     5.165395544277335        0.2497807817927765E-02
     5.176201811106368        0.2286709968416478E-02
     5.187008077935400        0.2085471285786582E-02
     5.197814344764431        0.1894156009878078E-02
     5.208620611593464        0.1712785301588379E-02
     5.219426878422496        0.1541338910421410E-02
     5.230233145251528        0.1379757082954973E-02
     5.241039412080560        0.1227942650404605E-02
     5.251845678909592        0.1085763236249703E-02
     5.262651945738624        0.9530535253185595E-03
     5.273458212567657        0.8296175325543043E-03
     5.284264479396689        0.7152308005800964E-03
     5.295070746225720        0.6096424357338301E-03
     5.305877013054753        0.5125768535702204E-03
     5.316683279883785        0.4237350280818662E-03
     5.327489546712817        0.3427948811536999E-03
     5.338295813541849        0.2694101038354200E-03
     5.349102080370881        0.2032058762827168E-03
     5.359908347199913        0.1437677208609490E-03
     5.370714614028945        0.9061250102179288E-04
     5.381520880857977        0.4309959603866793E-04
     5.392327147687009         0.000000000000000    
  0  3  2  0  0.000000   #orbital l, n, z, is_polarized, population
 500    0.7708956125812034E-02     3.846769106780205     # npts, delta, cutoff
     0.000000000000000       -0.1576073059629800    
    0.7708956125812034E-02   -0.1575467603770210    
    0.1541791225162407E-01   -0.1573602604351947    
    0.2312686837743610E-01   -0.1570494333522601    
    0.3083582450324814E-01   -0.1566142915288499    
    0.3854478062906017E-01   -0.1560548527631356    
    0.4625373675487220E-01   -0.1553711416608181    
    0.5396269288068424E-01   -0.1545631910308871    
    0.6167164900649627E-01   -0.1536310435191318    
    0.6938060513230830E-01   -0.1525747534948132    
    0.7708956125812033E-01   -0.1513943891802491    
    0.8479851738393238E-01   -0.1500900350066900    
    0.9250747350974441E-01   -0.1486617941768574    
    0.1002164296355564       -0.1471097914123900    
    0.1079253857613685       -0.1454341758627310    
    0.1156343418871805       -0.1436351241505424    
    0.1233432980129925       -0.1417128435275047    
    0.1310522541388046       -0.1396675751133885    
    0.1387612102646166       -0.1374995971905150    
    0.1464701663904286       -0.1352092285252113    
    0.1541791225162407       -0.1327968316875827    
    0.1618880786420527       -0.1302628163408761    